// Copyright (c) 2009-2019 The Regents of the University of Michigan
// This file is part of the HOOMD-blue project, released under the BSD 3-Clause License.

// we need the definition of the template functions to instantiate explicitly
#define __EXPORT_IMPL__

#ifdef ENABLE_JIT

#include "../jit/PatchEnergyJIT.h"

//! This file, with a .cc ending, is auto-generated from the .cc.in template. Do not edit directly.

//! A few defines to instantiate a kernel template
#cmakedefine SHAPE @SHAPE@                 // the class name of the shape
#cmakedefine SHAPE_INCLUDE @SHAPE_INCLUDE@ // the name of the include file
#cmakedefine IS_UNION_SHAPE  // define to generate a kernel for a ShapeUnion<...>

#include "module_factory.h"
using namespace hpmc;
template void export_PatchEnergyJIT<SHAPE_CLASS(SHAPE)>(pybind11::module& m, const std::string& name);

#endif // ENABLE_JIT
